/*--------------------------------*- C++ -*----------------------------------*\
  =========                 |
  \\      /  F ield         | OpenFOAM: The Open Source CFD Toolbox
   \\    /   O peration     | Website:  https://openfoam.org
    \\  /    A nd           | Version:  7
     \\/     M anipulation  |
\*---------------------------------------------------------------------------*/
FoamFile
{
    version     2.0;
    format      ascii;
    class       volScalarField;
    location    "0";
    object      wallGradT;
}
// * * * * * * * * * * * * * * * * * * * * * * * * * * * * * * * * * * * * * //

dimensions      [0 -1 0 1 0 0 0];

internalField   uniform 0;

boundaryField
{
    frontAndBack
    {
        type            empty;
    }
    airfoil
    {
        type            calculated;
        value           nonuniform List<scalar> 
287
(
8117198.3
8117377.3
8117384.4
8117418
8117506.7
8117483
8117543.6
8117502.6
8117536.1
8117515.2
8117530.8
8117601.4
8117598.6
8117648.5
8117640
8117677.2
8117650.3
8117672.3
8117656.5
8117662.9
8117627.6
8117636.1
8117624.8
8117609.6
8117601.3
8117583.1
8117595.9
8117588.2
8117602
8117587.1
8117595.2
8117554.2
8117555
8117552.6
8117554.3
8117512.2
8117512
8117508.9
8117505
8117471.5
8117467.4
8117449.6
8117442.6
8117416.4
8117413.1
8117398.7
8117388.9
8117366.8
8117352.9
8117331.5
8117326.1
8117337.9
8117319.2
8117323
8117312.8
8117320.9
8117297.5
8117299.3
8117269.8
8117271.4
8117252.8
8117245.4
8117255.9
8117245.2
8117258.9
8117228.4
8117230.8
8117219.7
8117212.7
8117231.9
8117204.4
8117207.7
8117208.3
8117193.5
8117206.9
8117189.6
8117177.9
8117197.2
8117192.6
8117167.3
8117168.1
8117190.9
8117179.2
8117156.7
8117149.4
8117159.3
8117169.3
8117165.7
8117164.6
8117161.7
8117150.8
8117147.8
8117152.2
8117152.8
8117148.8
8117145.9
8121979.6
8270014.2
8562310.6
8887034.3
9144146.2
9332346.4
9436304.8
9475907.6
9473413.2
9432064
9371835.5
9300819.6
9224106.3
9151058.5
9084407.5
9017956.4
8962464.8
8914867.9
8871977.9
8835626.1
8805334.5
8780261.2
8759708.6
8743008.6
8728769.5
8715926.6
8704139.3
8692757.7
8681180.8
8668843.3
8655163.5
8640127.9
8623378.2
8604661.7
8583640.2
8560410.6
8535179.2
8507439.1
8476901.2
8443865.5
8408552.2
8370545.1
8329832.8
8286849.7
8241340.6
8193299.8
8142942.8
8148600
8322559.1
8581326.7
8851741.3
9095065.4
9281878.2
9370636.4
9404088.7
9396461
9352602.8
9290682.5
9219452.1
9148934.6
9076579.2
9012979.4
8952315.4
8897902.2
8853432.2
8817266.3
8786872.2
8761899.7
8741612.1
8725249.9
8712234.9
8701458.9
8691889.2
8683107.1
8674460.4
8665355
8655249.6
8643623
8630413.8
8615277.5
8597967.2
8578555.2
8556914.7
8532695.8
8505688.5
8475862.9
8443664.8
8408949.7
8371197.7
8330920.4
8288236.8
8242794.3
8197034.7
8150594.2
8122416.4
8117520.5
8117516.4
8117485.6
8117500.6
8117504.7
8117547.2
8117576.8
8117632.5
8117682.1
8117746.9
8117801.4
8117862.1
8117920.2
8117980.2
8118047.5
8118084.5
8118141
8118191.3
8118245.9
8118251.5
8118300
8118352.6
8118383.9
8118382.4
8118401.6
8118398.9
8118423.7
8118447
8118458.3
8118475
8118442.4
8118398.6
8118414.6
8118446.6
8118396
8118346.1
8118355.1
8118377.6
8118326.3
8118288.5
8118261.4
8118251
8118203.1
8118174
8118154.7
8118148.4
8118099.9
8118073.9
8118008.5
8117976
8117961.8
8117947.8
8117901.9
8117871.3
8117872
8117844.3
8117811.6
8117762.4
8117715.4
8117693.1
8117707.6
8117646.9
8117613.4
8117604.2
8117579.1
8117530.3
8117493.4
8117504.9
8117468.7
8117445.3
8117420.7
8117375.1
8117371.1
8117362.5
8117325.2
8117288.4
8117290.2
8117267
8117258
8117236.6
8117200.2
8117203.8
8117181
8117180.7
8117169.5
8117153.7
8117155.3
8117128.5
8117126.8
8117132.4
8117124
8117121.1
8117122.3
8117131.8
8117133.8
8117140.7
)
;
    }
    outlet
    {
        type            calculated;
        value           uniform 0;
    }
    inlet
    {
        type            calculated;
        value           uniform 0;
    }
}


// ************************************************************************* //
