/*--------------------------------*- C++ -*----------------------------------*\
  =========                 |
  \\      /  F ield         | OpenFOAM: The Open Source CFD Toolbox
   \\    /   O peration     | Website:  https://openfoam.org
    \\  /    A nd           | Version:  7
     \\/     M anipulation  |
\*---------------------------------------------------------------------------*/
FoamFile
{
    version     2.0;
    format      ascii;
    class       volScalarField;
    location    "0";
    object      wallMagSf;
}
// * * * * * * * * * * * * * * * * * * * * * * * * * * * * * * * * * * * * * //

dimensions      [0 2 0 0 0 0 0];

internalField   uniform 0;

boundaryField
{
    frontAndBack
    {
        type            empty;
    }
    airfoil
    {
        type            calculated;
        value           nonuniform List<scalar> 
287
(
0.008662297
0.0085781098
0.0089345949
0.0086955097
0.0086589398
0.00867004
0.0086130701
0.0086142601
0.0085927162
0.0085617979
0.0085665025
0.0085122941
0.0085199743
0.0084811922
0.0084724789
0.008449829
0.0084271499
0.0084156937
0.0083840913
0.0083791414
0.0083427588
0.0083388037
0.0083051138
0.0082966159
0.0082694668
0.008255499
0.0082327814
0.0082155062
0.0081952372
0.0081763927
0.0081571586
0.0081380964
0.0081186786
0.008100458
0.0080798073
0.0080634806
0.0080407433
0.008026979
0.0080012621
0.0079911217
0.007961801
0.0079558886
0.0079217444
0.0079211726
0.0078814331
0.0078873165
0.0078405098
0.0078541555
0.0078028984
0.0078179941
0.0077681127
0.0077791566
0.0077345966
0.007738988
0.0077028296
0.0076970609
0.0076728042
0.0076526583
0.0076449605
0.0076056621
0.0076195356
0.0075547832
0.0075965085
0.0075298101
0.0075462168
0.0075103244
0.0074874224
0.0074942339
0.0074265517
0.0074761475
0.0074165011
0.0074008586
0.0074103298
0.007347493
0.0073716986
0.0073488303
0.007291424
0.0073239875
0.0073003469
0.00725098
0.0072403168
0.0072637615
0.0072245675
0.0071902276
0.0071614567
0.0071639754
0.007167207
0.0071415316
0.007117155
0.0070892398
0.0070732356
0.0071089691
0.0070383456
0.0070548859
0.007007727
0.0069512762
0.0034507752
0.0035154029
0.0035935831
0.003672564
0.0037460154
0.0038176333
0.0038924049
0.0039744192
0.0040655694
0.0041656292
0.0042135132
0.0042856593
0.0044032823
0.004522853
0.0045310454
0.0046669586
0.0048017715
0.0048114904
0.0049617906
0.0050723944
0.0051246024
0.0052855959
0.0053487955
0.0054661654
0.0056168069
0.0056566682
0.0058314831
0.0059153364
0.0060388168
0.0061977945
0.0062568482
0.0064410502
0.0065328813
0.0066750138
0.0068379666
0.0069205885
0.0071118908
0.0072195068
0.0073738333
0.0075531742
0.0076485341
0.0078464221
0.0079886415
0.0081392281
0.0083545074
0.00911983
0.0080058658
0.0034507752
0.0035154029
0.0035935831
0.003672564
0.0037460154
0.0038176333
0.0038924049
0.0039744192
0.0040655694
0.0041656292
0.0042135132
0.0042856593
0.0044032823
0.004522853
0.0045310454
0.0046669586
0.0048017715
0.0048114904
0.0049617906
0.0050723944
0.0051246024
0.0052855959
0.0053487955
0.0054661654
0.0056168069
0.0056566682
0.0058314831
0.0059153364
0.0060388168
0.0061977945
0.0062568482
0.0064410502
0.0065328813
0.0066750138
0.0068379666
0.0069205885
0.0071118908
0.0072195068
0.0073738333
0.0075531742
0.0076485341
0.0078464221
0.0079886415
0.0081392281
0.0083545074
0.00911983
0.0080058658
0.0085527241
0.0084980325
0.0088560185
0.0086035865
0.0085725604
0.0085849041
0.0085209277
0.0085304809
0.0085006076
0.0084792671
0.0084748476
0.0084309129
0.008439392
0.0083903706
0.0083927853
0.0083600243
0.0083481816
0.0083270226
0.0083056906
0.0082919324
0.0082647757
0.0082549888
0.0082254258
0.0082170894
0.0081873884
0.0081778738
0.0081505487
0.0081376882
0.0081149999
0.0080982325
0.00807899
0.0080594332
0.0080427553
0.0080211155
0.0080063017
0.0079832525
0.00796985
0.0079457665
0.0079330565
0.0079087327
0.007896499
0.007872183
0.0078596147
0.0078359937
0.0078225139
0.0078005041
0.0077853205
0.0077656185
0.007747257
0.0077316101
0.0077089722
0.0076986247
0.007669325
0.0076668022
0.0076286749
0.0076365106
0.0075861772
0.0076077575
0.0075433208
0.0075792205
0.0075154774
0.0075352137
0.0074901619
0.0074871437
0.0074679102
0.0074347021
0.0074487773
0.0073795958
0.0074291961
0.0073655019
0.0073644574
0.0073552526
0.0072895952
0.0073486671
0.0072858236
0.0072603992
0.0072863468
0.0072287038
0.0072129541
0.0072364074
0.0071865531
0.0071397017
0.007188057
0.0071576817
0.0071222905
0.0070923415
0.0070689621
0.0070815124
0.0070689998
0.0070430422
0.0070136253
0.0070247684
0.0070264134
0.0069547763
0.0069885394
0.0069326209
0.0068820457
)
;
    }
    outlet
    {
        type            calculated;
        value           uniform 0;
    }
    inlet
    {
        type            calculated;
        value           uniform 0;
    }
}


// ************************************************************************* //
